6
Properties=species:S:1:pos:R:3:nac:R:3:force_0:R:3:force_1:R:3 energy_0=-5158.999241319103 energy_1=-5158.981358667308 pbc="F F F"
C       -1.54178232      -0.72952409       0.19186065       0.18864339       0.50191989       0.40338546       1.05002135      -2.09252968       0.49973418       1.05002135      -2.09252968       0.49973418
C       -0.79059444       0.31413649      -0.21179605       1.50495063       1.25593442      -0.83103590       1.77733623       1.08098270      -1.71622633       1.77733623       1.08098270      -1.71622633
C        0.65695785      -0.06491076      -0.16681753      -1.98795720      -2.62008950       0.31979663      -2.20428709       2.82506447       1.97982530      -2.20428709       2.82506447       1.97982530
O        1.70158696       0.32225408       0.16180183       1.02969147       1.20750155       0.02908559      -0.39324624      -1.82343973      -1.03775458      -0.39324624      -1.82343973      -1.03775458
H       -2.61164581      -0.70506959       0.29633452       0.01167748       0.59202909       0.29388836      -0.43548378       0.46022659      -0.01792833      -0.43548378       0.46022659      -0.01792833
H       -1.02743075       1.30954320      -0.64274356      -0.72365082       0.24676274       0.37265659       0.20565953      -0.45030435       0.29234976       0.20565953      -0.45030435       0.29234976
6
Properties=species:S:1:pos:R:3:nac:R:3:force_0:R:3:force_1:R:3 energy_0=-5159.10064122699 energy_1=-5158.677197937585 pbc="F F F"
C       -1.62125716      -0.75120512      -0.16875497      -0.71600218       2.04741317       0.74804593      -0.50769267      -1.47492366      -0.68376785      -0.50769267      -1.47492366      -0.68376785
C       -0.73430434       0.20966985       0.18041894      -1.03105418      -0.94258279      -0.54165465       0.38546110      -2.31478253      -1.06959787       0.38546110      -2.31478253      -1.06959787
C        0.68011745      -0.05774166      -0.02004152       1.53106296      -1.97017934      -0.25056949      -3.35980411       1.46482259       1.45333746      -3.35980411       1.46482259       1.45333746
O        1.70046905       0.40035330      -0.01089968       0.65863805       1.62198932       0.21242947       3.60251661       0.32892481      -0.54670027       3.60251661       0.32892481      -0.54670027
H       -2.63333384      -0.39339151      -0.22091638       0.09646555       0.34875191       0.12200790      -0.70048234       0.37638459       0.29975870      -0.70048234       0.37638459       0.29975870
H       -0.98770118       1.17503115       0.49152053       0.34617910       0.40788845       0.04624336       0.58000140       1.61957421       0.54696983       0.58000140       1.61957421       0.54696983
6
Properties=species:S:1:pos:R:3:nac:R:3:force_0:R:3:force_1:R:3 energy_0=-5158.681295539043 energy_1=-5158.519968563587 pbc="F F F"
C       -1.45615361      -0.90964706       0.04493304       0.76418515       2.22746193      -0.25955398       2.64868065      -0.04596348       0.52256675       2.64868065      -0.04596348       0.52256675
C       -0.78373550       0.35693445       0.06499942      -3.07722085      -2.22433176      -0.57378382      -2.56082964       1.05529045      -2.15619557      -2.56082964       1.05529045      -2.15619557
C        0.63941736       0.53351297       0.02400698      -1.95676195      -1.17267830      -0.88024983      -2.26086740      -3.29974303       1.04740339      -2.26086740      -3.29974303       1.04740339
O        1.65237823      -0.00130572      -0.04946529      -0.08183920       0.67176343       0.45188118       1.29229277       1.11514500      -0.24741641       1.29229277       1.11514500      -0.24741641
H       -2.37210117      -0.97327399      -0.55989042       0.10680021      -0.51407500       0.32701253       0.04644628       0.91425968       0.44561827       0.04644628       0.91425968       0.44561827
H       -1.37838006       1.22265288      -0.25198526       0.16763434       0.01002996       0.07795661       0.83427734       0.26101138       0.38802357       0.83427734       0.26101138       0.38802357
6
Properties=species:S:1:pos:R:3:nac:R:3:force_0:R:3:force_1:R:3 energy_0=-5159.077910428902 energy_1=-5158.846415375488 pbc="F F F"
C       -0.76466860      -0.20718302       0.32330210      -1.42866800       0.74609315      -1.16196538       0.28469316       0.80768483      -0.95126952       0.28469316       0.80768483      -0.95126952
C       -1.61678027       0.68316399      -0.33892428       1.01767486       1.19551302      -1.12987225       0.79679698      -2.31416968       1.47012738       0.79679698      -2.31416968       1.47012738
C        0.66937588       0.09736376       0.03684752      -2.30563499      -1.09987518      -0.42065423      -0.26034766       2.28132608      -1.08408666      -0.26034766       2.28132608      -1.08408666
O        1.72876349      -0.40142910      -0.04682516      -0.06487641       1.06056183       0.05756024      -0.06556465      -1.02894105       0.57436760      -0.06556465      -1.02894105       0.57436760
H       -0.92871139      -1.09208493       0.92437347      -0.03852103      -0.33976584       0.09095574      -1.14543412      -0.11238967      -0.03152062      -1.14543412      -0.11238967      -0.03152062
H       -2.70524230       0.63638784      -0.43608262      -0.03731043      -0.07034067       0.24004512       0.38985629       0.36648950       0.02238181       0.38985629       0.36648950       0.02238181
6
Properties=species:S:1:pos:R:3:nac:R:3:force_0:R:3:force_1:R:3 energy_0=-5159.097204291113 energy_1=-5158.863663130897 pbc="F F F"
C       -1.63400824      -0.74996758      -0.18335810      -0.91551923       1.34027204       0.72878057       1.16258667      -1.83389305      -0.62743143       1.16258667      -1.83389305      -0.62743143
C       -0.73135434       0.23210758       0.16417414      -1.02595396      -1.23045681      -0.27864445      -0.47900047      -2.92766440      -1.08433748      -0.47900047      -2.92766440      -1.08433748
C        0.66282138      -0.02819747      -0.06085011       1.74774442      -0.60377890      -0.64585336      -1.59673357       2.77572732       0.68961864      -1.59673357       2.77572732       0.68961864
O        1.72004247       0.38111435       0.01813293       0.31147877       0.91556037       0.49539313       1.38188640      -0.99619608      -0.25402321       1.38188640      -0.99619608      -0.25402321
H       -2.66298391      -0.70840087       0.08971944       0.04159472       0.10233234       0.07699778      -0.84286315       1.06131434       0.38532210      -0.84286315       1.06131434       0.38532210
H       -0.94605439       1.16170162       0.57331811       0.07615528       0.31926437       0.22267810       0.37412411       1.92071187       0.89085138       0.37412411       1.92071187       0.89085138
6
Properties=species:S:1:pos:R:3:nac:R:3:force_0:R:3:force_1:R:3 energy_0=-5159.08782076636 energy_1=-5158.777849287069 pbc="F F F"
C       -1.62270231      -0.72976441      -0.18520579      -0.42557611       2.32483498       1.27360884      -1.74496593      -1.65596998       0.08966216      -1.74496593      -1.65596998       0.08966216
C       -0.75298395       0.22137684       0.13984354      -1.15206708      -0.66093316      -0.31774598       0.78567499      -0.47590906       0.17821028       0.78567499      -0.47590906       0.17821028
C        0.67953451      -0.06130614      -0.05770173       1.23169734      -2.85571869      -1.10266287      -1.36106875       1.77656524      -0.10569411      -1.36106875       1.77656524      -0.10569411
O        1.71079262       0.39254861       0.02077461       0.96966960       2.01617379       0.63572238       2.25886176       0.03471514       0.20176933       2.25886176       0.03471514       0.20176933
H       -2.62320880      -0.58739435       0.20340042       0.12759476       0.51545804       0.32135679      -0.48347952       0.40727809      -0.29878167      -0.48347952       0.40727809      -0.29878167
H       -0.91510572       1.14065781       0.69192482       0.49612900       0.30889888       0.16756559       0.54497746      -0.08667943      -0.06516598       0.54497746      -0.08667943      -0.06516598
6
Properties=species:S:1:pos:R:3:nac:R:3:force_0:R:3:force_1:R:3 energy_0=-5158.605275649514 energy_1=-5158.506635657872 pbc="F F F"
C       -1.52331256      -0.89258146       0.04007433      -0.42478554       2.40332855      -1.40895681       1.72976567       0.15941080      -0.16304297       1.72976567       0.15941080      -0.16304297
C       -0.78427829       0.31699729      -0.09852290      -0.50743191      -1.84079821      -0.48609527      -0.32759110      -0.77062031       0.43286008      -0.32759110      -0.77062031       0.43286008
C        0.61419716       0.31972356       0.25803375      -0.39733229      -1.05770145      -3.30209578       0.95389259      -0.57688511      -2.16671077       0.95389259      -0.57688511      -2.16671077
O        1.73285858       0.16561150      -0.11622810      -0.89378023       0.44928847       1.75447135      -2.26582844       0.53556156       1.51664424      -2.26582844       0.53556156       1.51664424
H       -2.58016948      -0.74862811      -0.04615162      -0.01530055      -0.71446113       0.71128488      -0.91686376       0.09970823       0.35863248      -0.91686376       0.09970823       0.35863248
H       -1.34118759       1.16679109      -0.48778241       0.34359452       0.45648219       0.36385723       0.82662503       0.55282484       0.02161694       0.82662503       0.55282484       0.02161694
6
Properties=species:S:1:pos:R:3:nac:R:3:force_0:R:3:force_1:R:3 energy_0=-5158.7697299223255 energy_1=-5158.680163245478 pbc="F F F"
C       -1.48550222      -0.90270377      -0.03541773       1.22094252       1.88564246       0.40409528       1.87206849      -1.25278237       0.34324982       1.87206849      -1.25278237       0.34324982
C       -0.81107379       0.32007371      -0.05113915      -3.33464951      -1.70768258       0.22594808      -0.39832384       3.30538449       1.64552420      -0.39832384       3.30538449       1.64552420
C        0.64193103       0.50353650       0.06715315       2.05879127       0.53164097      -0.55552718      -1.47443930      -4.01490063      -2.24974071      -1.47443930      -4.01490063      -2.24974071
O        1.69714072       0.03223712      -0.02333627      -0.18745135      -0.35462247       0.28531270      -0.54905870       1.66524501       0.89801152      -0.54905870       1.66524501       0.89801152
H       -2.45047325      -0.83066238       0.48211686       0.01176323       0.35146462       0.43558923      -0.14965900       0.54446608      -0.71257762      -0.14965900       0.54446608      -0.71257762
H       -1.36538985       1.26083868       0.11715181       0.25413029      -0.00351376       0.07576036       0.69941234      -0.24741258       0.07553280       0.69941234      -0.24741258       0.07553280
6
Properties=species:S:1:pos:R:3:nac:R:3:force_0:R:3:force_1:R:3 energy_0=-5158.976287006577 energy_1=-5158.870997501173 pbc="F F F"
C       -1.62670151      -0.72048670      -0.18958426       0.19894632       1.06505862       0.52074888      -2.77956359       2.31710963      -0.03496025      -2.77956359       2.31710963      -0.03496025
C       -0.78268435       0.26523425       0.15896149      -1.04974640      -1.05346153      -0.36604759       0.33167938       0.12012710      -0.41817548       0.33167938       0.12012710      -0.41817548
C        0.68183639      -0.05431877      -0.08664042      -1.82042231      -2.91909776      -1.51834401      -0.72545904      -2.04543745      -0.42320766      -0.72545904      -2.04543745      -0.42320766
O        1.74567118       0.32774397       0.07994082       1.43344603       1.40537580       0.79971388       2.21801279       2.01724805       0.73800435       2.21801279       2.01724805       0.73800435
H       -2.71717597      -0.46550712      -0.28430989       0.00585576       0.61574824       0.38052452       0.96065446      -1.00730289       0.40813166       0.96065446      -1.00730289       0.40813166
H       -1.00083942       1.33139907       0.40969194      -0.85586068       0.01095004       0.21235818      -0.00532399      -1.40174444      -0.26979261      -0.00532399      -1.40174444      -0.26979261
6
Properties=species:S:1:pos:R:3:nac:R:3:force_0:R:3:force_1:R:3 energy_0=-5158.762816866156 energy_1=-5158.578921816785 pbc="F F F"
C       -1.44472274      -0.92222497       0.02765710      -0.30590079       2.86907985      -0.70948829       2.45317322       2.00300930       0.81496541       2.45317322       2.00300930       0.81496541
C       -0.76719584       0.32981651       0.00135787      -1.75382027      -3.39298150      -0.18186370      -5.92764654      -1.26109455      -1.80762948      -5.92764654      -1.26109455      -1.80762948
C        0.60705204       0.54205493       0.11134415      -1.69959760      -3.41631382      -1.20901147       4.38341759      -2.73076266       0.11868811       4.38341759      -2.73076266       0.11868811
O        1.66239303       0.02168118      -0.06639161      -0.45497384       1.70067349       0.59991542      -1.95629839       1.79698405       0.39527547      -1.95629839       1.79698405       0.39527547
H       -2.45344060      -0.93739328      -0.37537610       0.06174535      -0.94358353       0.30872074       0.11172149       0.00293958      -0.13470128       0.11172149       0.00293958      -0.13470128
H       -1.40365466       1.19289731      -0.24430476       0.15659574       0.24815515       0.02646479       0.93563264       0.18892428       0.61340177       0.93563264       0.18892428       0.61340177
6
Properties=species:S:1:pos:R:3:nac:R:3:force_0:R:3:force_1:R:3 energy_0=-5159.067683922188 energy_1=-5158.907782633612 pbc="F F F"
C       -1.64513416      -0.72804017      -0.16996116      -0.03267489       1.76033673       0.64908717      -0.05319222       1.20292612       0.26168641      -0.05319222       1.20292612       0.26168641
C       -0.76138637       0.27528086       0.12227406      -0.05631216      -0.67019297      -0.11323374      -1.48674007      -0.06125777      -0.42147005      -1.48674007      -0.06125777      -0.42147005
C        0.65810746      -0.02733222      -0.10098936      -0.57194263      -3.43780336      -1.41485088       2.85623721      -0.02875459      -0.49406336       2.85623721      -0.02875459      -0.49406336
O        1.75765660       0.31719182       0.10233430       1.31904977       1.76845653       0.79237577      -0.91728524       0.34368300       0.41816871      -0.91728524       0.34368300       0.41816871
H       -2.71195066      -0.70177311      -0.06329887      -0.01604428       0.68780640       0.33244571      -0.45042890       0.21875092       0.33602315      -0.45042890       0.21875092       0.33602315
H       -0.94786263       1.38412562       0.20731269      -0.78678869      -0.07337648       0.19259990       0.05140923      -1.67534768      -0.10034487       0.05140923      -1.67534768      -0.10034487
6
Properties=species:S:1:pos:R:3:nac:R:3:force_0:R:3:force_1:R:3 energy_0=-5158.842162424147 energy_1=-5158.77720886677 pbc="F F F"
C       -1.64913685      -0.73025687      -0.20119933      -0.65722105       2.37882665       0.61979169      -0.61443539       0.53321449       0.19842145      -0.61443539       0.53321449       0.19842145
C       -0.73812124       0.27965069       0.13578818      -0.69011320      -0.29885193      -0.05326956      -2.16751449      -1.71019105      -0.93891984      -2.16751449      -1.71019105      -0.93891984
C        0.68976278      -0.05661587      -0.03123521       0.88183479      -3.05156066      -0.90015402      -4.40636524       1.27349701       0.52456354      -4.40636524       1.27349701       0.52456354
O        1.73340623       0.32758694       0.06265215       1.20760143       1.98744655       0.57955233       4.40934657       0.84036150       0.18177342       4.40934657       0.84036150       0.18177342
H       -2.73837575      -0.47547611      -0.16105779       0.06699527       0.61117829       0.12539925       0.97226358       0.21156548       0.21782585       0.97226358       0.21156548       0.21782585
H       -1.14283563       1.31588914       0.31534260       0.67510670       0.40468232       0.12052119       1.80670497      -1.14844743      -0.18366441       1.80670497      -1.14844743      -0.18366441
6
Properties=species:S:1:pos:R:3:nac:R:3:force_0:R:3:force_1:R:3 energy_0=-5158.862179102775 energy_1=-5158.745020256808 pbc="F F F"
C       -1.61640870      -0.79739330       0.02273308      -0.53489614       2.51212461      -0.70053424      -0.94964200       1.13145585       0.95784435      -0.94964200       1.13145585       0.95784435
C       -0.77752503       0.28550220      -0.10518751      -0.81583923      -0.93910159      -0.52644038      -1.37818010       0.58014386      -0.54682765      -1.37818010       0.58014386      -0.54682765
C        0.65312826       0.06962756       0.24151874      -0.92766574       1.59512426      -2.76882978       2.26032837       1.78834806      -2.13027206       2.26032837       1.78834806      -2.13027206
O        1.76119474       0.28298729      -0.08244771      -0.95353136      -1.11540345       1.54466671      -2.18110578      -0.62492140       1.14649238      -2.18110578      -0.62492140       1.14649238
H       -2.69390778      -0.60192065      -0.16473818      -0.05141300      -0.68606532       0.11535588       0.80067287      -0.27126372      -0.78280138       0.80067287      -0.27126372      -0.78280138
H       -1.11264087       1.37671254      -0.42284008       0.47904874       0.40723688       0.11254434       1.44792665      -2.60376264       1.35556436       1.44792665      -2.60376264       1.35556436
6
Properties=species:S:1:pos:R:3:nac:R:3:force_0:R:3:force_1:R:3 energy_0=-5158.930268828426 energy_1=-5158.645807601253 pbc="F F F"
C       -1.63028373      -0.72957854       0.16138591      -0.83467936       1.85430495      -0.45349981       0.12959764      -0.23607354      -0.39488138       0.12959764      -0.23607354      -0.39488138
C       -0.84603295       0.25767249      -0.25048625      -0.12697673      -0.38243643      -0.10418188       0.10976382       0.16710731       1.26365955       0.10976382       0.16710731       1.26365955
C        0.68596117      -0.02241633      -0.04438749      -0.08858539      -3.68980688       0.08530671       3.35589906       0.69676630      -0.75460484       3.35589906       0.69676630      -0.75460484
O        1.79060486       0.33400179       0.10859864       1.52028070       2.29729063       0.02290226      -2.89623669      -0.11741795      -0.04646714      -2.89623669      -0.11741795      -0.04646714
H       -2.67372363      -0.74511333       0.31751324       0.02739705      -0.62222891       0.09383534      -1.10788015       0.46022995       0.02988676      -1.10788015       0.46022995       0.02988676
H       -1.00960107       1.33012384      -0.45376753      -0.75138973      -0.22199622       0.14727362       0.40885631      -0.97061207      -0.09759296       0.40885631      -0.97061207      -0.09759296
6
Properties=species:S:1:pos:R:3:nac:R:3:force_0:R:3:force_1:R:3 energy_0=-5158.644080575329 energy_1=-5157.3307750356 pbc="F F F"
C       -0.93259547      -0.72826071      -0.10787306       0.83157845       0.20783190       0.49562973      -0.84442751       1.59385876       3.60581119      -0.84442751       1.59385876       3.60581119
C       -0.98173875       0.76252655       0.07133391       1.13140799       0.03617292      -0.60223674       1.23277037      -4.71811211      -1.21988395       1.23277037      -4.71811211      -1.21988395
C        0.29863540       0.00529398       0.02411104       0.09670875      -0.59442445      -2.02537801       8.34046990      -0.03287034      -0.28800010       8.34046990      -0.03287034      -0.28800010
O        1.57298708      -0.02812063       0.00915043       0.04934471       0.26812488       0.45773912      -6.70819870       0.36897873       0.20841944      -6.70819870       0.36897873       0.20841944
H       -1.19010256      -1.57612379       0.58281403      -0.44205753       0.08284770       0.24677334      -0.60730217       0.61347346      -1.83131655      -0.60730217       0.61347346      -1.83131655
H       -1.11907737       1.55143602      -0.58219042       0.59583361       0.07179290       0.22299908      -1.41331190       2.17467150      -0.47503003      -1.41331190       2.17467150      -0.47503003
6
Properties=species:S:1:pos:R:3:nac:R:3:force_0:R:3:force_1:R:3 energy_0=-5158.8134934182945 energy_1=-5158.572806571651 pbc="F F F"
C       -1.40058801      -0.90248544      -0.05740494      -0.80806892       2.35612576       0.83200046       1.26892615       2.40805759       0.89425623       1.26892615       2.40805759       0.89425623
C       -0.81528294       0.38023105      -0.00276328      -1.03595210      -2.98827715      -0.81402290      -4.04662434      -4.14753363       0.76377063      -4.04662434      -4.14753363       0.76377063
C        0.60936137       0.54014483       0.00058334      -1.37456342      -3.53132903      -0.61758007       4.17867485      -1.50623497      -1.11541647       4.17867485      -1.50623497      -1.11541647
O        1.66481459      -0.02083684       0.00628048      -0.54492000       1.80398154       0.30639035      -2.59499003       1.42104868       0.36763123      -2.59499003       1.42104868       0.36763123
H       -2.40095853      -1.06212480       0.43044531      -0.12089095       0.85450112       0.26935977       1.04838794       0.08138353      -1.08200880       1.04838794       0.08138353      -1.08200880
H       -1.47500523       1.17985153       0.17721400       0.19635335       0.24069498       0.05980752       0.14562544       1.74327880       0.17176718       0.14562544       1.74327880       0.17176718
6
Properties=species:S:1:pos:R:3:nac:R:3:force_0:R:3:force_1:R:3 energy_0=-5158.752888324272 energy_1=-5158.662763269495 pbc="F F F"
C       -1.33624416      -0.91627171      -0.00999478       0.23056306       2.85519629       0.35756476      -0.50731935       3.21170460      -0.04785933      -0.50731935       3.21170460      -0.04785933
C       -0.78381297       0.37734589      -0.04418532      -2.78939543      -2.77611823      -0.52593314      -1.96178657      -1.74217660      -0.94135504      -1.96178657      -1.74217660      -0.94135504
C        0.60078730       0.54478195       0.15280717      -2.14500002      -1.46213103      -0.62489022       1.87460182       2.09659088       1.14796092       1.87460182       2.09659088       1.14796092
O        1.59105475      -0.02981970      -0.07142438      -0.11846255       0.73058161       0.27968963       0.86687188      -1.07802833      -0.47016064       0.86687188      -1.07802833      -0.47016064
H       -2.39941474      -0.92437785       0.18664710      -0.16787233       0.71650113       0.30167310      -0.34607659      -1.11322516       0.08507513      -0.34607659      -1.11322516       0.08507513
H       -1.34467566       1.32795953      -0.22955781       0.12749747      -0.09412635       0.12484089       0.07370881      -1.37486540       0.22633895       0.07370881      -1.37486540       0.22633895
6
Properties=species:S:1:pos:R:3:nac:R:3:force_0:R:3:force_1:R:3 energy_0=-5158.931935717156 energy_1=-5158.766100547428 pbc="F F F"
C       -0.74688967      -0.22216432       0.21035210      -1.09752946       1.48296172      -0.66043914       0.11036103      -2.71747033       1.96528714       0.11036103      -2.71747033       1.96528714
C       -1.57315709       0.72351692      -0.23508390      -0.78515529      -0.16278806      -0.31937800       1.39373718       2.62188143      -3.09774677       1.39373718       2.62188143      -3.09774677
C        0.63262289      -0.10451390      -0.17831229      -2.25155083       1.81290104      -1.30409548      -4.13105284      -0.28155265       2.34142956      -4.13105284      -0.28155265       2.34142956
O        1.70758521      -0.28490094       0.09175256       1.00301541      -0.55096156       0.47146017       2.96578165       0.14724428      -0.99914509       2.96578165       0.14724428      -0.99914509
H       -0.99707902      -1.03262803       0.98220954      -0.57082255      -0.06064513       0.39562740       1.02873062       0.62113226      -1.23896980       1.02873062       0.62113226      -1.23896980
H       -2.59425295       0.82917160      -0.02290973       0.06332679      -0.11887930       0.54280922      -1.36755764      -0.39123499       1.02914496      -1.36755764      -0.39123499       1.02914496
6
Properties=species:S:1:pos:R:3:nac:R:3:force_0:R:3:force_1:R:3 energy_0=-5158.875591955584 energy_1=-5157.2964701678475 pbc="F F F"
C       -0.98797533      -0.70966217      -0.10170480       1.68387056       0.51942615       0.79902502       2.77094993       0.19479918       4.46278106       2.77094993       0.19479918       4.46278106
C       -1.05576112       0.71402663       0.07909601       2.07578706       0.05352441      -0.53163678       3.00922519      -1.16758652      -2.02456035       3.00922519      -1.16758652      -2.02456035
C        0.41199236       0.00677300       0.01479088       0.22567378      -0.90741814      -2.39721520      -3.71665817      -0.53511510      -0.81578499      -3.71665817      -0.53511510      -0.81578499
O        1.59734919      -0.01364306      -0.00735685       0.03480657       0.22049506       0.44745831      -0.31251737       0.24122962       0.19703666      -0.31251737       0.24122962       0.19703666
H       -1.22225180      -1.52472643       0.68340159      -0.66267985       0.08181053       0.30190667      -0.73288826       1.00313701      -2.54885083      -0.73288826       1.00313701      -2.54885083
H       -1.28252411       1.60868920      -0.47568822       0.79411600       0.13921082       0.31718843      -1.01811132       0.26353580       0.72937845      -1.01811132       0.26353580       0.72937845
6
Properties=species:S:1:pos:R:3:nac:R:3:force_0:R:3:force_1:R:3 energy_0=-5158.848843693612 energy_1=-5158.79812763052 pbc="F F F"
C       -0.78321268      -0.27817034       0.24561798      -1.40098263       1.57235642      -0.10375334      -0.04471875       1.00545682      -0.20109036      -0.04471875       1.00545682      -0.20109036
C       -1.62554634       0.75530429      -0.25828438       0.94019842       1.06964298      -0.61578866       2.45332432      -3.48329159       1.95590003       2.45332432      -3.48329159       1.95590003
C        0.66011988      -0.07808359      -0.19529300       2.11720732      -0.75227444      -0.95462645      -3.21441260       2.27667199      -2.74537983      -3.21441260       2.27667199      -2.74537983
O        1.75102958      -0.28767057       0.09550449      -0.04551264      -0.05415462       0.69237512       2.65572653      -1.51256918       1.80082462       2.65572653      -1.51256918       1.80082462
H       -0.92997684      -1.16434754       0.92579005      -0.19136418      -0.15481058       0.38538847      -0.94420769       1.37685828      -0.65632784      -0.94420769       1.37685828      -0.65632784
H       -2.62196917       0.97851329       0.03248941       0.07812219       0.14890505       0.13560448      -0.90571181       0.33687369      -0.15392663      -0.90571181       0.33687369      -0.15392663
6
Properties=species:S:1:pos:R:3:nac:R:3:force_0:R:3:force_1:R:3 energy_0=-5158.826403431643 energy_1=-5158.604063082318 pbc="F F F"
C       -1.60759965      -0.78300187      -0.12573626      -0.23932621       1.78177771      -0.37833441      -0.98954062      -1.29763981      -1.92863173      -0.98954062      -1.29763981      -1.92863173
C       -0.79347040       0.28564860       0.11156377       1.67330506       1.77407646      -0.47693920       0.06629157       2.84957893      -0.07278282       0.06629157       2.84957893      -0.07278282
C        0.65218984       0.15069010      -0.20919262       1.96232528       0.54411317      -0.86490961       1.47192659       0.67344754       4.45237021       1.47192659       0.67344754       4.45237021
O        1.77095193       0.21165790       0.15303469      -0.15818928       0.03575481       0.55118526      -3.30958198      -0.47351170      -2.55875387      -3.30958198      -0.47351170      -2.55875387
H       -2.72488415      -0.59415668      -0.15837454      -0.04477687      -0.36567413       0.60688942       1.39009642       0.04106692       1.12378786       1.39009642       0.04106692       1.12378786
H       -1.14037360       1.36270045       0.38704144      -0.15327214       0.22189511       0.39176987       1.37080801      -1.79294190      -1.01598965       1.37080801      -1.79294190      -1.01598965
6
Properties=species:S:1:pos:R:3:nac:R:3:force_0:R:3:force_1:R:3 energy_0=-5159.061444919607 energy_1=-5158.848557973912 pbc="F F F"
C       -1.64248728      -0.72383743      -0.23582609      -0.32307002       2.36526193       0.79495638       0.56581101       1.41245326       1.05091465       0.56581101       1.41245326       1.05091465
C       -0.78420166       0.29976886       0.10180757      -0.21162928      -0.00779915      -0.21196020      -0.30760885      -2.78602779      -0.78552526      -0.30760885      -2.78602779      -0.78552526
C        0.68292611      -0.09508556       0.07323008       0.14687240      -3.57357599      -0.13626281       1.35729628       1.57610781       0.16206104       1.35729628       1.57610781       0.16206104
O        1.75486879       0.34521490       0.01307430       1.21362408       2.13278804       0.01072050      -0.62326211      -0.20191836       0.01084235      -0.62326211      -0.20191836       0.01084235